integrator              = md
dt                      = 0.002
nsteps                  = 50000000

nstxout                 = 0
nstvout                 = 0
nstfout                 = 0
nstlog                  = 50000
nstenergy               = 50000
nstxout-compressed      = 50000
compressed-x-grps       = System

continuation            = yes
constraint-algorithm    = lincs
constraints             = h-bonds
lincs-order             = 4
lincs-iter              = 1
lincs-warnangle         = 30

cutoff-scheme           = Verlet
nstlist                 = 40
ns_type                 = grid
pbc                     = xyz
verlet-buffer-tolerance = 0.005
rlist                   = 1.0
coulombtype             = PME
rcoulomb                = 1.0
vdwtype                 = Cut-off
rvdw                    = 1.0
DispCorr                = EnerPres
fourierspacing          = 0.12
pme_order               = 4
ewald_rtol              = 1e-5
ewald_geometry          = 3d

tcoupl                  = V-rescale
tc-grps                 = Protein Non-Protein
tau_t                   = 0.1     0.1
ref_t                   = 300     300

pcoupl                  = Parrinello-Rahman
pcoupltype              = isotropic
tau_p                   = 2.0
ref_p                   = 1.0
compressibility         = 4.5e-5
refcoord_scaling        = com

gen_vel                 = no
periodic-molecules      = no
gen_seed                = -1
