define                  = -DPOSRES
integrator              = md
dt                      = 0.002
nsteps                  = 50000
nstxout-compressed      = 5000
nstenergy               = 5000
continuation            = yes
constraint_algorithm    = lincs
constraints             = h-bonds
lincs_iter              = 1
lincs_order             = 4
cutoff-scheme           = Verlet
ns_type                 = grid
nstlist                 = 20
rlist                   = 1.0
coulombtype             = PME
rcoulomb                = 1.0
vdwtype                 = Cut-off
rvdw                    = 1.0
tcoupl                  = V-rescale
tc-grps                 = Protein Non-Protein
tau_t                   = 0.1   0.1
ref_t                   = 300   300
pcoupl                  = Parrinello-Rahman
pcoupltype              = isotropic
tau_p                   = 2.0
ref_p                   = 1.0
compressibility         = 4.5e-5
pbc                     = xyz
gen_vel                 = no
